<?xml version="1.0" encoding="UTF-8"?>

<!-- generated on 2023-11-06 05:19:06 by Eclipse SUMO sumo Version v1_18_0+2427-ccfd716261e
<configuration xmlns:xsi="http://www.w3.org/2001/XMLSchema-instance" xsi:noNamespaceSchemaLocation="http://sumo.dlr.de/xsd/sumoConfiguration.xsd">

    <input>
        <net-file value="C:\Users\delphi\testreports\sumoExtra\git\tools\game\square/square.net.xml"/>
        <additional-files value="C:\Users\delphi\testreports\sumoExtra\git\tools\game\square/square.tll.xml.delay_based,C:\Users\delphi\testreports\sumoExtra\git\tools\game\square/square.poi.xml,C:\Users\delphi\testreports\sumoExtra\git\tools\game\square/square.rou.xml,C:\Users\delphi\testreports\sumoExtra\git\tools\game\input_additional.add.xml"/>
    </input>

    <output>
        <human-readable-time value="false"/>
        <tripinfo-output value="C:\Users\delphi\testreports\sumoExtra\git\tools\game\tripinfos.xml"/>
        <tripinfo-output.write-unfinished value="true"/>
        <tripinfo-output.write-undeparted value="true"/>
        <statistic-output value="C:\Users\delphi\testreports\sumoExtra\git\tools\game\square.stats.xml"/>
    </output>

    <time>
        <begin value="0"/>
        <end value="180"/>
        <step-length value=".1"/>
    </time>

    <report>
        <verbose value="false"/>
        <xml-validation value="never"/>
        <no-warnings value="true"/>
        <duration-log.statistics value="true"/>
        <no-step-log value="true"/>
    </report>

    <gui_only>
        <gui-settings-file value="C:\Users\delphi\testreports\sumoExtra\git\tools\game\square/settings.xml"/>
    </gui_only>

</configuration>
-->

<tripinfos xmlns:xsi="http://www.w3.org/2001/XMLSchema-instance" xsi:noNamespaceSchemaLocation="http://sumo.dlr.de/xsd/tripinfo_file.xsd">
    <tripinfo id="horiz.0" depart="0.00" departLane="right1B1_0" departPos="5.10" departSpeed="13.89" departDelay="0.00" arrival="35.10" arrivalLane="A1left1_0" arrivalPos="182.80" arrivalSpeed="13.78" duration="35.10" routeLength="484.90" waitingTime="0.00" waitingCount="0" stopTime="0.00" timeLoss="0.16" rerouteNo="0" devices="tripinfo_horiz.0" vType="DEFAULT_VEHTYPE" speedFactor="1.00" vaporized=""/>
    <tripinfo id="vertic.0" depart="0.00" departLane="top0A1_0" departPos="5.10" departSpeed="13.89" departDelay="0.00" arrival="37.20" arrivalLane="A0bottom0_0" arrivalPos="182.80" arrivalSpeed="16.62" duration="37.20" routeLength="484.90" waitingTime="3.40" waitingCount="1" stopTime="0.00" timeLoss="8.06" rerouteNo="0" devices="tripinfo_vertic.0" vType="DEFAULT_VEHTYPE" speedFactor="1.20" vaporized=""/>
    <tripinfo id="emergency2.0" depart="0.00" departLane="left1A1_0" departPos="6.60" departSpeed="0.00" departDelay="0.00" arrival="42.90" arrivalLane="B1right1_0" arrivalPos="192.80" arrivalSpeed="13.77" duration="42.90" routeLength="493.40" waitingTime="0.00" waitingCount="0" stopTime="0.00" timeLoss="7.35" rerouteNo="0" devices="tripinfo_emergency2.0" vType="ev2" speedFactor="1.00" vaporized=""/>
    <tripinfo id="horiz.1" depart="2.00" departLane="right0B0_0" departPos="5.10" departSpeed="13.89" departDelay="0.00" arrival="42.90" arrivalLane="A0left0_0" arrivalPos="182.80" arrivalSpeed="13.88" duration="40.90" routeLength="484.90" waitingTime="0.00" waitingCount="0" stopTime="0.00" timeLoss="5.97" rerouteNo="0" devices="tripinfo_horiz.1" vType="DEFAULT_VEHTYPE" speedFactor="1.00" vaporized=""/>
    <tripinfo id="horiz.2" depart="4.00" departLane="right0B0_0" departPos="5.10" departSpeed="13.89" departDelay="0.00" arrival="44.50" arrivalLane="A0left0_0" arrivalPos="182.80" arrivalSpeed="13.82" duration="40.50" routeLength="484.90" waitingTime="0.00" waitingCount="0" stopTime="0.00" timeLoss="5.52" rerouteNo="0" devices="tripinfo_horiz.2" vType="DEFAULT_VEHTYPE" speedFactor="1.00" vaporized=""/>
    <tripinfo id="emergency3.0" depart="0.70" departLane="right1B1_0" departPos="6.60" departSpeed="0.00" departDelay="0.70" arrival="45.30" arrivalLane="A1left1_0" arrivalPos="192.80" arrivalSpeed="13.81" duration="44.60" routeLength="493.40" waitingTime="0.70" waitingCount="1" stopTime="0.00" timeLoss="9.01" rerouteNo="0" devices="tripinfo_emergency3.0" vType="ev3" speedFactor="1.00" vaporized=""/>
    <tripinfo id="horiz.3" depart="6.00" departLane="left0A0_0" departPos="5.10" departSpeed="13.89" departDelay="0.00" arrival="45.60" arrivalLane="B0right0_0" arrivalPos="182.80" arrivalSpeed="13.97" duration="39.60" routeLength="484.90" waitingTime="0.00" waitingCount="0" stopTime="0.00" timeLoss="4.98" rerouteNo="0" devices="tripinfo_horiz.3" vType="DEFAULT_VEHTYPE" speedFactor="1.01" vaporized=""/>
    <tripinfo id="emergency1.0" depart="0.00" departLane="bottom0A0_0" departPos="6.60" departSpeed="0.00" departDelay="0.00" arrival="48.30" arrivalLane="A1top0_0" arrivalPos="192.80" arrivalSpeed="13.77" duration="48.30" routeLength="493.40" waitingTime="0.40" waitingCount="1" stopTime="0.00" timeLoss="12.71" rerouteNo="0" devices="tripinfo_emergency1.0" vType="ev1" speedFactor="1.00" vaporized=""/>
    <tripinfo id="vertic.3" depart="12.00" departLane="bottom0A0_0" departPos="5.10" departSpeed="13.89" departDelay="0.00" arrival="49.20" arrivalLane="A1top0_0" arrivalPos="182.80" arrivalSpeed="15.57" duration="37.20" routeLength="484.90" waitingTime="0.00" waitingCount="0" stopTime="0.00" timeLoss="6.02" rerouteNo="0" devices="tripinfo_vertic.3" vType="DEFAULT_VEHTYPE" speedFactor="1.12" vaporized=""/>
    <tripinfo id="horiz.7" depart="14.00" departLane="left0A0_0" departPos="5.10" departSpeed="13.89" departDelay="0.00" arrival="50.00" arrivalLane="B0right0_0" arrivalPos="182.80" arrivalSpeed="13.88" duration="36.00" routeLength="484.90" waitingTime="0.00" waitingCount="0" stopTime="0.00" timeLoss="1.04" rerouteNo="0" devices="tripinfo_horiz.7" vType="DEFAULT_VEHTYPE" speedFactor="1.00" vaporized=""/>
    <tripinfo id="vertic.1" depart="4.00" departLane="bottom1B0_0" departPos="5.10" departSpeed="13.89" departDelay="0.00" arrival="52.00" arrivalLane="B1top1_0" arrivalPos="182.80" arrivalSpeed="14.87" duration="48.00" routeLength="484.90" waitingTime="4.80" waitingCount="2" stopTime="0.00" timeLoss="15.55" rerouteNo="0" devices="tripinfo_vertic.1" vType="DEFAULT_VEHTYPE" speedFactor="1.08" vaporized=""/>
    <tripinfo id="horiz.4" depart="8.00" departLane="right0B0_0" departPos="5.10" departSpeed="13.89" departDelay="0.00" arrival="52.50" arrivalLane="A0left0_0" arrivalPos="182.80" arrivalSpeed="14.03" duration="44.50" routeLength="484.90" waitingTime="4.30" waitingCount="1" stopTime="0.00" timeLoss="10.00" rerouteNo="0" devices="tripinfo_horiz.4" vType="DEFAULT_VEHTYPE" speedFactor="1.01" vaporized=""/>
    <tripinfo id="vertic.2" depart="8.00" departLane="bottom1B0_0" departPos="5.10" departSpeed="13.89" departDelay="0.00" arrival="53.80" arrivalLane="B1top1_0" arrivalPos="182.80" arrivalSpeed="14.05" duration="45.80" routeLength="484.90" waitingTime="0.00" waitingCount="0" stopTime="0.00" timeLoss="11.48" rerouteNo="0" devices="tripinfo_vertic.2" vType="DEFAULT_VEHTYPE" speedFactor="1.02" vaporized=""/>
    <tripinfo id="horiz.8" depart="16.00" departLane="right1B1_0" departPos="5.10" departSpeed="13.89" departDelay="0.00" arrival="58.00" arrivalLane="A1left1_0" arrivalPos="182.80" arrivalSpeed="13.81" duration="42.00" routeLength="484.90" waitingTime="0.90" waitingCount="1" stopTime="0.00" timeLoss="7.02" rerouteNo="0" devices="tripinfo_horiz.8" vType="DEFAULT_VEHTYPE" speedFactor="1.00" vaporized=""/>
    <tripinfo id="horiz.10" depart="20.00" departLane="left0A0_0" departPos="5.10" departSpeed="13.89" departDelay="0.00" arrival="58.70" arrivalLane="B0right0_0" arrivalPos="182.80" arrivalSpeed="14.96" duration="38.70" routeLength="484.90" waitingTime="0.80" waitingCount="1" stopTime="0.00" timeLoss="6.38" rerouteNo="0" devices="tripinfo_horiz.10" vType="DEFAULT_VEHTYPE" speedFactor="1.08" vaporized=""/>
    <tripinfo id="horiz.5" depart="10.00" departLane="right0B0_0" departPos="5.10" departSpeed="13.89" departDelay="0.00" arrival="60.30" arrivalLane="A0left0_0" arrivalPos="182.80" arrivalSpeed="15.06" duration="50.30" routeLength="484.90" waitingTime="3.50" waitingCount="1" stopTime="0.00" timeLoss="18.21" rerouteNo="0" devices="tripinfo_horiz.5" vType="DEFAULT_VEHTYPE" speedFactor="1.09" vaporized=""/>
    <tripinfo id="vertic.5" depart="20.00" departLane="top1B1_0" departPos="5.10" departSpeed="13.89" departDelay="0.00" arrival="60.70" arrivalLane="B0bottom1_0" arrivalPos="182.80" arrivalSpeed="13.77" duration="40.70" routeLength="484.90" waitingTime="0.00" waitingCount="0" stopTime="0.00" timeLoss="5.77" rerouteNo="0" devices="tripinfo_vertic.5" vType="DEFAULT_VEHTYPE" speedFactor="1.00" vaporized=""/>
    <tripinfo id="horiz.6" depart="12.00" departLane="right0B0_0" departPos="5.10" departSpeed="13.89" departDelay="0.00" arrival="62.00" arrivalLane="A0left0_0" arrivalPos="182.80" arrivalSpeed="14.53" duration="50.00" routeLength="484.90" waitingTime="0.00" waitingCount="0" stopTime="0.00" timeLoss="16.57" rerouteNo="0" devices="tripinfo_horiz.6" vType="DEFAULT_VEHTYPE" speedFactor="1.05" vaporized=""/>
    <tripinfo id="horiz.9" depart="18.00" departLane="right0B0_0" departPos="5.10" departSpeed="13.89" departDelay="0.00" arrival="63.40" arrivalLane="A0left0_0" arrivalPos="182.80" arrivalSpeed="15.11" duration="45.40" routeLength="484.90" waitingTime="0.00" waitingCount="0" stopTime="0.00" timeLoss="13.50" rerouteNo="0" devices="tripinfo_horiz.9" vType="DEFAULT_VEHTYPE" speedFactor="1.10" vaporized=""/>
    <tripinfo id="horiz.13" depart="26.00" departLane="right1B1_0" departPos="5.10" departSpeed="13.89" departDelay="0.00" arrival="64.30" arrivalLane="A1left1_0" arrivalPos="182.80" arrivalSpeed="13.98" duration="38.30" routeLength="484.90" waitingTime="0.00" waitingCount="0" stopTime="0.00" timeLoss="3.73" rerouteNo="0" devices="tripinfo_horiz.13" vType="DEFAULT_VEHTYPE" speedFactor="1.01" vaporized=""/>
    <tripinfo id="horiz.11" depart="22.00" departLane="right0B0_0" departPos="5.10" departSpeed="13.89" departDelay="0.00" arrival="65.00" arrivalLane="A0left0_0" arrivalPos="182.80" arrivalSpeed="14.21" duration="43.00" routeLength="484.90" waitingTime="0.00" waitingCount="0" stopTime="0.00" timeLoss="9.03" rerouteNo="0" devices="tripinfo_horiz.11" vType="DEFAULT_VEHTYPE" speedFactor="1.03" vaporized=""/>
    <tripinfo id="horiz.15" depart="30.00" departLane="left0A0_0" departPos="5.10" departSpeed="13.89" departDelay="0.00" arrival="66.00" arrivalLane="B0right0_0" arrivalPos="182.80" arrivalSpeed="13.99" duration="36.00" routeLength="484.90" waitingTime="0.00" waitingCount="0" stopTime="0.00" timeLoss="1.37" rerouteNo="0" devices="tripinfo_horiz.15" vType="DEFAULT_VEHTYPE" speedFactor="1.01" vaporized=""/>
    <tripinfo id="vertic.4" depart="16.00" departLane="bottom1B0_0" departPos="5.10" departSpeed="13.89" departDelay="0.00" arrival="68.90" arrivalLane="B1top1_0" arrivalPos="182.80" arrivalSpeed="14.35" duration="52.90" routeLength="484.90" waitingTime="8.90" waitingCount="2" stopTime="0.00" timeLoss="19.35" rerouteNo="0" devices="tripinfo_vertic.4" vType="DEFAULT_VEHTYPE" speedFactor="1.04" vaporized=""/>
    <tripinfo id="vertic.6" depart="24.00" departLane="top0A1_0" departPos="5.10" departSpeed="13.89" departDelay="0.00" arrival="70.00" arrivalLane="A0bottom0_0" arrivalPos="182.80" arrivalSpeed="13.92" duration="46.00" routeLength="484.90" waitingTime="1.40" waitingCount="2" stopTime="0.00" timeLoss="11.30" rerouteNo="0" devices="tripinfo_vertic.6" vType="DEFAULT_VEHTYPE" speedFactor="1.01" vaporized=""/>
    <tripinfo id="vertic.7" depart="28.00" departLane="top0A1_0" departPos="5.10" departSpeed="13.89" departDelay="0.00" arrival="71.60" arrivalLane="A0bottom0_0" arrivalPos="182.80" arrivalSpeed="13.77" duration="43.60" routeLength="484.90" waitingTime="1.40" waitingCount="1" stopTime="0.00" timeLoss="8.60" rerouteNo="0" devices="tripinfo_vertic.7" vType="DEFAULT_VEHTYPE" speedFactor="1.00" vaporized=""/>
    <tripinfo id="horiz.14" depart="28.00" departLane="left1A1_0" departPos="5.10" departSpeed="13.89" departDelay="0.00" arrival="72.00" arrivalLane="B1right1_0" arrivalPos="182.80" arrivalSpeed="14.24" duration="44.00" routeLength="484.90" waitingTime="0.10" waitingCount="1" stopTime="0.00" timeLoss="10.10" rerouteNo="0" devices="tripinfo_horiz.14" vType="DEFAULT_VEHTYPE" speedFactor="1.03" vaporized=""/>
    <tripinfo id="horiz.16" depart="32.00" departLane="left0A0_0" departPos="5.10" departSpeed="13.89" departDelay="0.00" arrival="73.80" arrivalLane="B0right0_0" arrivalPos="182.80" arrivalSpeed="13.87" duration="41.80" routeLength="484.90" waitingTime="1.20" waitingCount="1" stopTime="0.00" timeLoss="6.88" rerouteNo="0" devices="tripinfo_horiz.16" vType="DEFAULT_VEHTYPE" speedFactor="1.00" vaporized=""/>
    <tripinfo id="horiz.17" depart="34.00" departLane="left0A0_0" departPos="5.10" departSpeed="13.89" departDelay="0.00" arrival="75.20" arrivalLane="B0right0_0" arrivalPos="182.80" arrivalSpeed="15.63" duration="41.20" routeLength="484.90" waitingTime="0.00" waitingCount="0" stopTime="0.00" timeLoss="10.36" rerouteNo="0" devices="tripinfo_horiz.17" vType="DEFAULT_VEHTYPE" speedFactor="1.13" vaporized=""/>
    <tripinfo id="horiz.12" depart="24.00" departLane="right0B0_0" departPos="5.10" departSpeed="13.89" departDelay="0.00" arrival="76.30" arrivalLane="A0left0_0" arrivalPos="182.80" arrivalSpeed="14.36" duration="52.30" routeLength="484.90" waitingTime="7.30" waitingCount="2" stopTime="0.00" timeLoss="18.72" rerouteNo="0" devices="tripinfo_horiz.12" vType="DEFAULT_VEHTYPE" speedFactor="1.04" vaporized=""/>
    <tripinfo id="horiz.18" depart="36.00" departLane="left1A1_0" departPos="5.10" departSpeed="13.89" departDelay="0.00" arrival="77.20" arrivalLane="B1right1_0" arrivalPos="182.80" arrivalSpeed="15.52" duration="41.20" routeLength="484.90" waitingTime="0.80" waitingCount="1" stopTime="0.00" timeLoss="10.09" rerouteNo="0" devices="tripinfo_horiz.18" vType="DEFAULT_VEHTYPE" speedFactor="1.12" vaporized=""/>
    <tripinfo id="horiz.19" depart="38.00" departLane="right0B0_0" departPos="5.10" departSpeed="13.89" departDelay="0.00" arrival="78.00" arrivalLane="A0left0_0" arrivalPos="182.80" arrivalSpeed="13.84" duration="40.00" routeLength="484.90" waitingTime="0.00" waitingCount="0" stopTime="0.00" timeLoss="5.09" rerouteNo="0" devices="tripinfo_horiz.19" vType="DEFAULT_VEHTYPE" speedFactor="1.00" vaporized=""/>
    <tripinfo id="horiz.20" depart="40.00" departLane="right1B1_0" departPos="5.10" departSpeed="13.89" departDelay="0.00" arrival="78.10" arrivalLane="A1left1_0" arrivalPos="182.80" arrivalSpeed="15.07" duration="38.10" routeLength="484.90" waitingTime="0.50" waitingCount="1" stopTime="0.00" timeLoss="6.05" rerouteNo="0" devices="tripinfo_horiz.20" vType="DEFAULT_VEHTYPE" speedFactor="1.09" vaporized=""/>
    <tripinfo id="vertic.10" depart="40.00" departLane="top0A1_0" departPos="5.10" departSpeed="13.89" departDelay="0.00" arrival="81.60" arrivalLane="A0bottom0_0" arrivalPos="182.80" arrivalSpeed="14.92" duration="41.60" routeLength="484.90" waitingTime="3.60" waitingCount="1" stopTime="0.00" timeLoss="9.28" rerouteNo="0" devices="tripinfo_vertic.10" vType="DEFAULT_VEHTYPE" speedFactor="1.08" vaporized=""/>
    <tripinfo id="horiz.21" depart="42.00" departLane="left1A1_0" departPos="5.10" departSpeed="13.89" departDelay="0.00" arrival="84.20" arrivalLane="B1right1_0" arrivalPos="182.80" arrivalSpeed="13.80" duration="42.20" routeLength="484.90" waitingTime="1.20" waitingCount="1" stopTime="0.00" timeLoss="7.29" rerouteNo="0" devices="tripinfo_horiz.21" vType="DEFAULT_VEHTYPE" speedFactor="1.00" vaporized=""/>
    <tripinfo id="vertic.8" depart="32.00" departLane="bottom0A0_0" departPos="5.10" departSpeed="13.89" departDelay="0.00" arrival="86.10" arrivalLane="A1top0_0" arrivalPos="182.80" arrivalSpeed="14.27" duration="54.10" routeLength="484.90" waitingTime="10.10" waitingCount="2" stopTime="0.00" timeLoss="20.27" rerouteNo="0" devices="tripinfo_vertic.8" vType="DEFAULT_VEHTYPE" speedFactor="1.03" vaporized=""/>
    <tripinfo id="vertic.9" depart="36.00" departLane="bottom0A0_0" departPos="5.10" departSpeed="13.89" departDelay="0.00" arrival="87.50" arrivalLane="A1top0_0" arrivalPos="182.80" arrivalSpeed="16.33" duration="51.50" routeLength="484.90" waitingTime="0.20" waitingCount="1" stopTime="0.00" timeLoss="21.88" rerouteNo="0" devices="tripinfo_vertic.9" vType="DEFAULT_VEHTYPE" speedFactor="1.18" vaporized=""/>
    <tripinfo id="horiz.26" depart="52.00" departLane="right0B0_0" departPos="5.10" departSpeed="13.89" departDelay="0.00" arrival="88.10" arrivalLane="A0left0_0" arrivalPos="182.80" arrivalSpeed="13.80" duration="36.10" routeLength="484.90" waitingTime="0.00" waitingCount="0" stopTime="0.00" timeLoss="1.18" rerouteNo="0" devices="tripinfo_horiz.26" vType="DEFAULT_VEHTYPE" speedFactor="1.00" vaporized=""/>
    <tripinfo id="horiz.23" depart="46.00" departLane="left1A1_0" departPos="5.10" departSpeed="13.89" departDelay="0.00" arrival="88.50" arrivalLane="B1right1_0" arrivalPos="182.80" arrivalSpeed="13.87" duration="42.50" routeLength="484.90" waitingTime="0.40" waitingCount="1" stopTime="0.00" timeLoss="7.59" rerouteNo="0" devices="tripinfo_horiz.23" vType="DEFAULT_VEHTYPE" speedFactor="1.00" vaporized=""/>
    <tripinfo id="vertic.13" depart="52.00" departLane="bottom0A0_0" departPos="5.10" departSpeed="13.89" departDelay="0.00" arrival="89.00" arrivalLane="A1top0_0" arrivalPos="182.80" arrivalSpeed="15.16" duration="37.00" routeLength="484.90" waitingTime="0.00" waitingCount="0" stopTime="0.00" timeLoss="5.03" rerouteNo="0" devices="tripinfo_vertic.13" vType="DEFAULT_VEHTYPE" speedFactor="1.09" vaporized=""/>
    <tripinfo id="horiz.27" depart="54.00" departLane="right0B0_0" departPos="5.10" departSpeed="13.89" departDelay="0.00" arrival="89.70" arrivalLane="A0left0_0" arrivalPos="182.80" arrivalSpeed="13.77" duration="35.70" routeLength="484.90" waitingTime="0.00" waitingCount="0" stopTime="0.00" timeLoss="0.74" rerouteNo="0" devices="tripinfo_horiz.27" vType="DEFAULT_VEHTYPE" speedFactor="1.00" vaporized=""/>
    <tripinfo id="horiz.22" depart="44.00" departLane="left0A0_0" departPos="5.10" departSpeed="13.89" departDelay="0.00" arrival="90.10" arrivalLane="B0right0_0" arrivalPos="182.80" arrivalSpeed="14.14" duration="46.10" routeLength="484.90" waitingTime="1.90" waitingCount="2" stopTime="0.00" timeLoss="11.86" rerouteNo="0" devices="tripinfo_horiz.22" vType="DEFAULT_VEHTYPE" speedFactor="1.02" vaporized=""/>
    <tripinfo id="horiz.24" depart="48.00" departLane="left1A1_0" departPos="5.10" departSpeed="13.89" departDelay="0.00" arrival="90.10" arrivalLane="B1right1_0" arrivalPos="182.80" arrivalSpeed="13.96" duration="42.10" routeLength="484.90" waitingTime="0.00" waitingCount="0" stopTime="0.00" timeLoss="7.36" rerouteNo="0" devices="tripinfo_horiz.24" vType="DEFAULT_VEHTYPE" speedFactor="1.01" vaporized=""/>
    <tripinfo id="horiz.25" depart="50.00" departLane="left1A1_0" departPos="5.10" departSpeed="13.89" departDelay="0.00" arrival="91.50" arrivalLane="B1right1_0" arrivalPos="182.80" arrivalSpeed="14.72" duration="41.50" routeLength="484.90" waitingTime="0.00" waitingCount="0" stopTime="0.00" timeLoss="8.74" rerouteNo="0" devices="tripinfo_horiz.25" vType="DEFAULT_VEHTYPE" speedFactor="1.07" vaporized=""/>
    <tripinfo id="vertic.15" depart="60.00" departLane="top0A1_0" departPos="5.10" departSpeed="13.89" departDelay="0.00" arrival="93.00" arrivalLane="A0bottom0_0" arrivalPos="182.80" arrivalSpeed="14.69" duration="33.00" routeLength="484.90" waitingTime="0.00" waitingCount="0" stopTime="0.00" timeLoss="0.15" rerouteNo="0" devices="tripinfo_vertic.15" vType="DEFAULT_VEHTYPE" speedFactor="1.06" vaporized=""/>
    <tripinfo id="vertic.12" depart="48.00" departLane="top1B1_0" departPos="5.10" departSpeed="13.89" departDelay="0.00" arrival="93.10" arrivalLane="B0bottom1_0" arrivalPos="182.80" arrivalSpeed="13.79" duration="45.10" routeLength="484.90" waitingTime="0.50" waitingCount="1" stopTime="0.00" timeLoss="10.19" rerouteNo="0" devices="tripinfo_vertic.12" vType="DEFAULT_VEHTYPE" speedFactor="1.00" vaporized=""/>
    <tripinfo id="horiz.28" depart="56.00" departLane="left0A0_0" departPos="5.10" departSpeed="13.89" departDelay="0.00" arrival="96.20" arrivalLane="B0right0_0" arrivalPos="182.80" arrivalSpeed="13.81" duration="40.20" routeLength="484.90" waitingTime="0.20" waitingCount="1" stopTime="0.00" timeLoss="5.22" rerouteNo="0" devices="tripinfo_horiz.28" vType="DEFAULT_VEHTYPE" speedFactor="1.00" vaporized=""/>
    <tripinfo id="vertic.11" depart="44.00" departLane="bottom1B0_0" departPos="5.10" departSpeed="13.89" departDelay="0.00" arrival="96.70" arrivalLane="B1top1_0" arrivalPos="182.80" arrivalSpeed="13.87" duration="52.70" routeLength="484.90" waitingTime="7.80" waitingCount="2" stopTime="0.00" timeLoss="17.96" rerouteNo="0" devices="tripinfo_vertic.11" vType="DEFAULT_VEHTYPE" speedFactor="1.01" vaporized=""/>
    <tripinfo id="horiz.29" depart="58.00" departLane="left0A0_0" departPos="5.10" departSpeed="13.89" departDelay="0.00" arrival="97.60" arrivalLane="B0right0_0" arrivalPos="182.80" arrivalSpeed="14.79" duration="39.60" routeLength="484.90" waitingTime="0.00" waitingCount="0" stopTime="0.00" timeLoss="6.99" rerouteNo="0" devices="tripinfo_horiz.29" vType="DEFAULT_VEHTYPE" speedFactor="1.07" vaporized=""/>
    <tripinfo id="horiz.31" depart="62.00" departLane="right1B1_0" departPos="5.10" departSpeed="13.89" departDelay="0.00" arrival="98.10" arrivalLane="A1left1_0" arrivalPos="182.80" arrivalSpeed="14.13" duration="36.10" routeLength="484.90" waitingTime="0.00" waitingCount="0" stopTime="0.00" timeLoss="1.83" rerouteNo="0" devices="tripinfo_horiz.31" vType="DEFAULT_VEHTYPE" speedFactor="1.02" vaporized=""/>
    <tripinfo id="horiz.30" depart="60.00" departLane="left1A1_0" departPos="5.10" departSpeed="13.89" departDelay="0.00" arrival="98.80" arrivalLane="B1right1_0" arrivalPos="182.80" arrivalSpeed="16.41" duration="38.80" routeLength="484.90" waitingTime="3.30" waitingCount="1" stopTime="0.00" timeLoss="9.39" rerouteNo="0" devices="tripinfo_horiz.30" vType="DEFAULT_VEHTYPE" speedFactor="1.19" vaporized=""/>
    <tripinfo id="horiz.32" depart="64.00" departLane="right1B1_0" departPos="5.10" departSpeed="13.89" departDelay="0.00" arrival="99.50" arrivalLane="A1left1_0" arrivalPos="182.80" arrivalSpeed="16.45" duration="35.50" routeLength="484.90" waitingTime="0.00" waitingCount="0" stopTime="0.00" timeLoss="6.07" rerouteNo="0" devices="tripinfo_horiz.32" vType="DEFAULT_VEHTYPE" speedFactor="1.19" vaporized=""/>
    <tripinfo id="vertic.14" depart="56.00" departLane="top1B1_0" departPos="5.10" departSpeed="13.89" departDelay="0.00" arrival="101.70" arrivalLane="B0bottom1_0" arrivalPos="182.80" arrivalSpeed="14.14" duration="45.70" routeLength="484.90" waitingTime="3.80" waitingCount="1" stopTime="0.00" timeLoss="11.41" rerouteNo="0" devices="tripinfo_vertic.14" vType="DEFAULT_VEHTYPE" speedFactor="1.02" vaporized=""/>
    <tripinfo id="horiz.33" depart="66.00" departLane="right0B0_0" departPos="5.10" departSpeed="13.89" departDelay="0.00" arrival="105.80" arrivalLane="A0left0_0" arrivalPos="182.80" arrivalSpeed="14.75" duration="39.80" routeLength="484.90" waitingTime="0.30" waitingCount="1" stopTime="0.00" timeLoss="7.03" rerouteNo="0" devices="tripinfo_horiz.33" vType="DEFAULT_VEHTYPE" speedFactor="1.07" vaporized=""/>
    <tripinfo id="vertic.16" depart="64.00" departLane="bottom1B0_0" departPos="5.10" departSpeed="13.89" departDelay="0.00" arrival="106.50" arrivalLane="B1top1_0" arrivalPos="182.80" arrivalSpeed="14.46" duration="42.50" routeLength="484.90" waitingTime="3.30" waitingCount="1" stopTime="0.00" timeLoss="9.10" rerouteNo="0" devices="tripinfo_vertic.16" vType="DEFAULT_VEHTYPE" speedFactor="1.05" vaporized=""/>
    <tripinfo id="horiz.35" depart="70.00" departLane="right0B0_0" departPos="5.10" departSpeed="13.89" departDelay="0.00" arrival="107.20" arrivalLane="A0left0_0" arrivalPos="182.80" arrivalSpeed="16.43" duration="37.20" routeLength="484.90" waitingTime="0.00" waitingCount="0" stopTime="0.00" timeLoss="7.79" rerouteNo="0" devices="tripinfo_horiz.35" vType="DEFAULT_VEHTYPE" speedFactor="1.19" vaporized=""/>
    <tripinfo id="horiz.34" depart="68.00" departLane="left1A1_0" departPos="5.10" departSpeed="13.89" departDelay="0.00" arrival="111.40" arrivalLane="B1right1_0" arrivalPos="182.80" arrivalSpeed="15.26" duration="43.40" routeLength="484.90" waitingTime="0.50" waitingCount="2" stopTime="0.00" timeLoss="11.60" rerouteNo="0" devices="tripinfo_horiz.34" vType="DEFAULT_VEHTYPE" speedFactor="1.10" vaporized=""/>
    <tripinfo id="vertic.18" depart="72.00" departLane="top1B1_0" departPos="5.10" departSpeed="13.89" departDelay="0.00" arrival="113.10" arrivalLane="B0bottom1_0" arrivalPos="182.80" arrivalSpeed="14.70" duration="41.10" routeLength="484.90" waitingTime="2.90" waitingCount="1" stopTime="0.00" timeLoss="8.28" rerouteNo="0" devices="tripinfo_vertic.18" vType="DEFAULT_VEHTYPE" speedFactor="1.07" vaporized=""/>
    <tripinfo id="vertic.17" depart="68.00" departLane="top0A1_0" departPos="5.10" departSpeed="13.89" departDelay="0.00" arrival="113.70" arrivalLane="A0bottom0_0" arrivalPos="182.80" arrivalSpeed="13.85" duration="45.70" routeLength="484.90" waitingTime="5.70" waitingCount="1" stopTime="0.00" timeLoss="10.74" rerouteNo="0" devices="tripinfo_vertic.17" vType="DEFAULT_VEHTYPE" speedFactor="1.00" vaporized=""/>
    <tripinfo id="horiz.36" depart="72.00" departLane="left0A0_0" departPos="5.10" departSpeed="13.89" departDelay="0.00" arrival="118.40" arrivalLane="B0right0_0" arrivalPos="182.80" arrivalSpeed="14.52" duration="46.40" routeLength="484.90" waitingTime="4.20" waitingCount="2" stopTime="0.00" timeLoss="12.95" rerouteNo="0" devices="tripinfo_horiz.36" vType="DEFAULT_VEHTYPE" speedFactor="1.05" vaporized=""/>
    <tripinfo id="horiz.38" depart="76.00" departLane="right1B1_0" departPos="5.10" departSpeed="13.89" departDelay="0.00" arrival="119.70" arrivalLane="A1left1_0" arrivalPos="182.80" arrivalSpeed="13.85" duration="43.70" routeLength="484.90" waitingTime="3.70" waitingCount="1" stopTime="0.00" timeLoss="8.71" rerouteNo="0" devices="tripinfo_horiz.38" vType="DEFAULT_VEHTYPE" speedFactor="1.00" vaporized=""/>
    <tripinfo id="horiz.37" depart="74.00" departLane="left0A0_0" departPos="5.10" departSpeed="13.89" departDelay="0.00" arrival="119.90" arrivalLane="B0right0_0" arrivalPos="182.80" arrivalSpeed="14.26" duration="45.90" routeLength="484.90" waitingTime="0.00" waitingCount="0" stopTime="0.00" timeLoss="12.09" rerouteNo="0" devices="tripinfo_horiz.37" vType="DEFAULT_VEHTYPE" speedFactor="1.03" vaporized=""/>
    <tripinfo id="horiz.40" depart="80.00" departLane="left1A1_0" departPos="5.10" departSpeed="13.89" departDelay="0.00" arrival="120.90" arrivalLane="B1right1_0" arrivalPos="182.80" arrivalSpeed="13.86" duration="40.90" routeLength="484.90" waitingTime="1.00" waitingCount="1" stopTime="0.00" timeLoss="5.94" rerouteNo="0" devices="tripinfo_horiz.40" vType="DEFAULT_VEHTYPE" speedFactor="1.00" vaporized=""/>
    <tripinfo id="horiz.39" depart="78.00" departLane="left0A0_0" departPos="5.10" departSpeed="13.89" departDelay="0.00" arrival="121.40" arrivalLane="B0right0_0" arrivalPos="182.80" arrivalSpeed="15.06" duration="43.40" routeLength="484.90" waitingTime="0.00" waitingCount="0" stopTime="0.00" timeLoss="11.38" rerouteNo="0" devices="tripinfo_horiz.39" vType="DEFAULT_VEHTYPE" speedFactor="1.09" vaporized=""/>
    <tripinfo id="horiz.41" depart="82.00" departLane="left1A1_0" departPos="5.10" departSpeed="13.89" departDelay="0.00" arrival="122.30" arrivalLane="B1right1_0" arrivalPos="182.80" arrivalSpeed="16.15" duration="40.30" routeLength="484.90" waitingTime="0.00" waitingCount="0" stopTime="0.00" timeLoss="10.45" rerouteNo="0" devices="tripinfo_horiz.41" vType="DEFAULT_VEHTYPE" speedFactor="1.17" vaporized=""/>
    <tripinfo id="horiz.44" depart="88.00" departLane="left1A1_0" departPos="5.10" departSpeed="13.89" departDelay="0.00" arrival="124.00" arrivalLane="B1right1_0" arrivalPos="182.80" arrivalSpeed="13.80" duration="36.00" routeLength="484.90" waitingTime="0.00" waitingCount="0" stopTime="0.00" timeLoss="1.03" rerouteNo="0" devices="tripinfo_horiz.44" vType="DEFAULT_VEHTYPE" speedFactor="1.00" vaporized=""/>
    <tripinfo id="vertic.19" depart="76.00" departLane="top1B1_0" departPos="5.10" departSpeed="13.89" departDelay="0.00" arrival="124.80" arrivalLane="B0bottom1_0" arrivalPos="182.80" arrivalSpeed="15.83" duration="48.80" routeLength="484.90" waitingTime="5.90" waitingCount="1" stopTime="0.00" timeLoss="18.39" rerouteNo="0" devices="tripinfo_vertic.19" vType="DEFAULT_VEHTYPE" speedFactor="1.15" vaporized=""/>
    <tripinfo id="vertic.20" depart="80.00" departLane="top1B1_0" departPos="5.10" departSpeed="13.89" departDelay="0.00" arrival="127.40" arrivalLane="B0bottom1_0" arrivalPos="182.80" arrivalSpeed="13.85" duration="47.40" routeLength="484.90" waitingTime="1.80" waitingCount="1" stopTime="0.00" timeLoss="12.49" rerouteNo="0" devices="tripinfo_vertic.20" vType="DEFAULT_VEHTYPE" speedFactor="1.00" vaporized=""/>
    <tripinfo id="vertic.21" depart="84.00" departLane="top1B1_0" departPos="5.10" departSpeed="13.89" departDelay="0.00" arrival="129.00" arrivalLane="B0bottom1_0" arrivalPos="182.80" arrivalSpeed="14.06" duration="45.00" routeLength="484.90" waitingTime="0.00" waitingCount="0" stopTime="0.00" timeLoss="10.55" rerouteNo="0" devices="tripinfo_vertic.21" vType="DEFAULT_VEHTYPE" speedFactor="1.02" vaporized=""/>